                         Program Version 6.1.0  -  RELEASE   -
|  1> ! B3LYP D3BJ def2-TZVP TightSCF SP
|  2>
|  3> %pal
|  4>   nprocs 24
|  5> end
|  6>
|  7> * xyz 0 1
|  8> P      6.0172026265   -2.2918561968    4.2265636908
|  9> O      6.5967632489   -3.6852873547    4.3329836526
| 10> O      4.6260022878   -2.3045105926    5.0162693351
| 11> P      4.8666013290   -1.4625671713    1.3927966673
| 12> O      4.9000179353   -0.0435481672    1.8550190748
| 13> O      3.5835936179   -1.9127945990    0.6442671782
| 14> P      6.4221580997   -2.2106899075   -1.1018180135
| 15> O      5.6605014417   -1.6912786622   -2.2447545083
| 16> O      6.3443901424   -3.7489256091   -0.8407040543
| 17> P      9.2440160506   -2.4694844903   -0.4250847057
| 18> O      9.7659486637   -3.6382655302   -1.1581369841
| 19> O      8.9015236702   -2.5181069191    1.0310584912
| 20> P     10.9392662065   -0.1979216811    0.3661783911
| 21> O     11.9878434102   -0.8857518080    1.1709090940
| 22> O      9.9971329788    0.7559739363    0.9912720684
| 23> P     13.0511745771    1.4274536333   -1.0617762335
| 24> O     13.1117167654    2.2842179901   -2.2310058748
| 25> O     14.0949850116    1.1854676747   -0.0560621755
| 26> O      5.2337296389   -2.5335950997    2.4140291559
| 27> O      6.0799511205   -1.5423550803    0.2830237264
| 28> O      7.9721676879   -1.8483673302   -1.2489725500
| 29> O     10.2721214637   -1.2149559591   -0.6485064156
| 30> O     11.7178679445    0.6932139417   -0.8514118488
| 31> N      3.5602225522    0.2132053127    4.5376673806
| 32> H      3.8446162276    0.2785205702    3.5567842475
| 33> H      4.1713614319   -1.4084722283    4.9584727899
| 34> H      2.5515258014    0.3044384271    4.5829988074
| 35> H      3.9592093568    1.0030379949    5.0339723439
| 36> N      3.1142986033   -0.4929248675   -1.4750601825
| 37> H      2.4651362182   -0.9354011438   -2.1148132443
| 38> H      3.3210260649   -1.3004003384   -0.1749920040
| 39> H      2.8506369431    0.4805665727   -1.3767722158
| 40> H      4.0394224548   -0.5678016764   -1.9069986085
| 41> N      7.7069723207   -4.8404065346   -2.7289091236
| 42> H      8.6255146552   -4.5079990983   -2.4014601258
| 43> H      6.8379712456   -4.2997760173   -1.6104156458
| 44> H      7.7570458937   -5.8365156783   -2.9047372229
| 45> H      7.4814525481   -4.3743620148   -3.5999613326
| 46> N      7.2670463049   -4.5318987723    2.0041149686
| 47> H      6.9824390763   -4.2551206591    3.0308634295
| 48> H      8.0110550290   -3.8980457640    1.6567750061
| 49> H      6.4584315241   -4.3903088373    1.3982910260
| 50> H      7.5815222453   -5.4954480762    1.9385564665
| 51> N      7.7460147581   -0.2180956014    2.2314803784
| 52> H      7.8883803708   -0.1586931461    3.2384676038
| 53> H      8.5391401437    0.2112969265    1.6981656357
| 54> H      6.8038109434    0.1438320323    2.0031655373
| 55> H      7.7900505950   -1.2072081454    1.9547330543
| 56> N     14.4345572852   -0.8619425771    1.6267815578
| 57> H     14.8829759395   -1.7173787596    1.3122532237
| 58> H     14.6065195492   -0.0834751836    0.9632919244
| 59> H     14.7494317307   -0.6250427371    2.5605109562
| 60> H     13.3361362688   -0.9536449972    1.5506362068
| 61> **                         ****END OF INPUT****

CARTESIAN COORDINATES (ANGSTROEM)
---------------------------------
  P      6.017203   -2.291856    4.226564
  O      6.596763   -3.685287    4.332984
  O      4.626002   -2.304511    5.016269
  P      4.866601   -1.462567    1.392797
  O      4.900018   -0.043548    1.855019
  O      3.583594   -1.912795    0.644267
  P      6.422158   -2.210690   -1.101818
  O      5.660501   -1.691279   -2.244755
  O      6.344390   -3.748926   -0.840704
  P      9.244016   -2.469484   -0.425085
  O      9.765949   -3.638266   -1.158137
  O      8.901524   -2.518107    1.031058
  P     10.939266   -0.197922    0.366178
  O     11.987843   -0.885752    1.170909
  O      9.997133    0.755974    0.991272
  P     13.051175    1.427454   -1.061776
  O     13.111717    2.284218   -2.231006
  O     14.094985    1.185468   -0.056062
  O      5.233730   -2.533595    2.414029
  O      6.079951   -1.542355    0.283024
  O      7.972168   -1.848367   -1.248973
  O     10.272121   -1.214956   -0.648506
  O     11.717868    0.693214   -0.851412
  N      3.560223    0.213205    4.537667
  H      3.844616    0.278521    3.556784
  H      4.171361   -1.408472    4.958473
  H      2.551526    0.304438    4.582999
  H      3.959209    1.003038    5.033972
  N      3.114299   -0.492925   -1.475060
  H      2.465136   -0.935401   -2.114813
  H      3.321026   -1.300400   -0.174992
  H      2.850637    0.480567   -1.376772
  H      4.039422   -0.567802   -1.906999
  N      7.706972   -4.840407   -2.728909
  H      8.625515   -4.507999   -2.401460
  H      6.837971   -4.299776   -1.610416
  H      7.757046   -5.836516   -2.904737
  H      7.481453   -4.374362   -3.599961
  N      7.267046   -4.531899    2.004115
  H      6.982439   -4.255121    3.030863
  H      8.011055   -3.898046    1.656775
  H      6.458432   -4.390309    1.398291
  H      7.581522   -5.495448    1.938556
  N      7.746015   -0.218096    2.231480
  H      7.888380   -0.158693    3.238468
  H      8.539140    0.211297    1.698166
  H      6.803811    0.143832    2.003166
  H      7.790051   -1.207208    1.954733
  N     14.434557   -0.861943    1.626782
  H     14.882976   -1.717379    1.312253
  H     14.606520   -0.083475    0.963292
  H     14.749432   -0.625043    2.560511
  H     13.336136   -0.953645    1.550636

 Total Charge           Charge          ....    0
 Multiplicity           Mult            ....    1
 Number of Electrons    NEL             ....  292
 Basis Dimension        Dim             .... 1079

ORBITAL ENERGIES
----------------

  NO   OCC          E(Eh)            E(eV)
   0   2.0000     -77.210426     -2101.0025
   1   2.0000     -77.198599     -2100.6807
   2   2.0000     -77.180794     -2100.1962
   3   2.0000     -77.168680     -2099.8666
   4   2.0000     -77.162823     -2099.7072
   5   2.0000     -77.088460     -2097.6836
   6   2.0000     -19.207690      -522.6678
   7   2.0000     -19.165095      -521.5088
   8   2.0000     -19.157252      -521.2953
   9   2.0000     -19.150220      -521.1040
  10   2.0000     -19.148377      -521.0538
  11   2.0000     -19.147081      -521.0186
  12   2.0000     -19.124832      -520.4131
  13   2.0000     -19.110760      -520.0302
  14   2.0000     -19.110677      -520.0280
  15   2.0000     -19.097506      -519.6696
  16   2.0000     -19.097252      -519.6627
  17   2.0000     -19.092335      -519.5288
  18   2.0000     -19.084523      -519.3163
  19   2.0000     -19.071737      -518.9683
  20   2.0000     -19.070045      -518.9223
  21   2.0000     -19.067903      -518.8640
  22   2.0000     -19.053772      -518.4795
  23   2.0000     -14.427170      -392.5833
  24   2.0000     -14.386157      -391.4672
  25   2.0000     -14.366346      -390.9281
  26   2.0000     -14.320374      -389.6772
  27   2.0000     -14.314140      -389.5076
  28   2.0000     -14.293418      -388.9437
  29   2.0000      -6.683470      -181.8665
  30   2.0000      -6.663012      -181.3098
  31   2.0000      -6.645625      -180.8366
  32   2.0000      -6.633726      -180.5129
  33   2.0000      -6.628016      -180.3575
  34   2.0000      -6.561509      -178.5477
  35   2.0000      -4.849312      -131.9565
  36   2.0000      -4.844198      -131.8173
  37   2.0000      -4.841069      -131.7322
  38   2.0000      -4.827760      -131.3700
  39   2.0000      -4.825330      -131.3039
  40   2.0000      -4.822305      -131.2216
  41   2.0000      -4.809338      -130.8687
  42   2.0000      -4.808547      -130.8472
  43   2.0000      -4.805386      -130.7612
  44   2.0000      -4.797776      -130.5541
  45   2.0000      -4.796688      -130.5245
  46   2.0000      -4.792899      -130.4214
  47   2.0000      -4.792488      -130.4102
  48   2.0000      -4.789394      -130.3260
  49   2.0000      -4.788596      -130.3043
  50   2.0000      -4.724504      -128.5603
  51   2.0000      -4.722090      -128.4946
  52   2.0000      -4.719315      -128.4191
  53   2.0000      -1.128992       -30.7214
  54   2.0000      -1.101591       -29.9758
  55   2.0000      -1.081532       -29.4300
  56   2.0000      -1.057820       -28.7848
  57   2.0000      -1.043509       -28.3953
  58   2.0000      -1.024210       -27.8702
  59   2.0000      -1.015015       -27.6200
  60   2.0000      -1.006171       -27.3793
  61   2.0000      -1.003297       -27.3011
  62   2.0000      -0.996066       -27.1043
  63   2.0000      -0.992190       -26.9989
  64   2.0000      -0.976804       -26.5802
  65   2.0000      -0.970238       -26.4015
  66   2.0000      -0.969065       -26.3696
  67   2.0000      -0.954924       -25.9848
  68   2.0000      -0.952341       -25.9145
  69   2.0000      -0.946436       -25.7538
  70   2.0000      -0.939170       -25.5561
  71   2.0000      -0.937432       -25.5088
  72   2.0000      -0.919627       -25.0243
  73   2.0000      -0.880760       -23.9667
  74   2.0000      -0.874872       -23.8065
  75   2.0000      -0.853145       -23.2152
  76   2.0000      -0.698469       -19.0063
  77   2.0000      -0.661687       -18.0054
  78   2.0000      -0.621880       -16.9222
  79   2.0000      -0.609605       -16.5882
  80   2.0000      -0.595873       -16.2145
  81   2.0000      -0.582536       -15.8516
  82   2.0000      -0.577057       -15.7025
  83   2.0000      -0.558210       -15.1897
  84   2.0000      -0.556121       -15.1328
  85   2.0000      -0.551447       -15.0056
  86   2.0000      -0.546186       -14.8625
  87   2.0000      -0.540894       -14.7185
  88   2.0000      -0.535080       -14.5603
  89   2.0000      -0.532344       -14.4858
  90   2.0000      -0.525182       -14.2909
  91   2.0000      -0.516752       -14.0615
  92   2.0000      -0.511573       -13.9206
  93   2.0000      -0.497237       -13.5305
  94   2.0000      -0.492938       -13.4135
  95   2.0000      -0.490705       -13.3528
  96   2.0000      -0.490196       -13.3389
  97   2.0000      -0.483177       -13.1479
  98   2.0000      -0.482489       -13.1292
  99   2.0000      -0.475179       -12.9303
 100   2.0000      -0.470429       -12.8010
 101   2.0000      -0.467515       -12.7217
 102   2.0000      -0.465620       -12.6702
 103   2.0000      -0.462569       -12.5872
 104   2.0000      -0.451646       -12.2899
 105   2.0000      -0.443899       -12.0791
 106   2.0000      -0.438286       -11.9264
 107   2.0000      -0.436226       -11.8703
 108   2.0000      -0.427964       -11.6455
 109   2.0000      -0.421884       -11.4801
 110   2.0000      -0.417235       -11.3536
 111   2.0000      -0.410880       -11.1806
 112   2.0000      -0.407655       -11.0929
 113   2.0000      -0.399239       -10.8639
 114   2.0000      -0.392801       -10.6887
 115   2.0000      -0.384672       -10.4674
 116   2.0000      -0.380497       -10.3538
 117   2.0000      -0.377374       -10.2689
 118   2.0000      -0.374441       -10.1890
 119   2.0000      -0.368884       -10.0378
 120   2.0000      -0.367140        -9.9904
 121   2.0000      -0.362979        -9.8772
 122   2.0000      -0.359124        -9.7723
 123   2.0000      -0.347467        -9.4550
 124   2.0000      -0.347180        -9.4473
 125   2.0000      -0.344224        -9.3668
 126   2.0000      -0.339309        -9.2331
 127   2.0000      -0.335363        -9.1257
 128   2.0000      -0.332035        -9.0351
 129   2.0000      -0.328129        -8.9289
 130   2.0000      -0.318093        -8.6557
 131   2.0000      -0.314069        -8.5462
 132   2.0000      -0.310465        -8.4482
 133   2.0000      -0.307189        -8.3590
 134   2.0000      -0.301169        -8.1952
 135   2.0000      -0.300339        -8.1726
 136   2.0000      -0.296935        -8.0800
 137   2.0000      -0.291800        -7.9403
 138   2.0000      -0.289593        -7.8802
 139   2.0000      -0.285598        -7.7715
 140   2.0000      -0.282657        -7.6915
 141   2.0000      -0.277961        -7.5637
 142   2.0000      -0.276416        -7.5217
 143   2.0000      -0.272017        -7.4020
 144   2.0000      -0.269875        -7.3437
 145   2.0000      -0.207580        -5.6485
 146   0.0000      -0.070849        -1.9279
 147   0.0000      -0.043853        -1.1933
 148   0.0000      -0.025627        -0.6973
 149   0.0000       0.015821         0.4305
 150   0.0000       0.026720         0.7271

MULLIKEN ATOMIC CHARGES
-----------------------
   0 P :    0.463363
   1 O :   -0.584384
   2 O :   -0.450791
   3 P :    0.951297
   4 O :   -0.646156
   5 O :   -0.497221
   6 P :    0.900580
   7 O :   -0.570485
   8 O :   -0.529150
   9 P :    0.922327
  10 O :   -0.596199
  11 O :   -0.690081
  12 P :    0.932325
  13 O :   -0.611128
  14 O :   -0.592902
  15 P :    0.931051
  16 O :   -0.414479
  17 O :   -0.535559
  18 O :   -0.508727
  19 O :   -0.405762
  20 O :   -0.366386
  21 O :   -0.356597
  22 O :   -0.300908
  23 N :   -0.701332
  24 H :    0.268333
  25 H :    0.347930
  26 H :    0.229706
  27 H :    0.224228
  28 N :   -0.670816
  29 H :    0.240171
  30 H :    0.366498
  31 H :    0.238160
  32 H :    0.282431
  33 N :   -0.678223
  34 H :    0.292303
  35 H :    0.372596
  36 H :    0.235577
  37 H :    0.249354
  38 N :   -0.448771
  39 H :    0.319419
  40 H :    0.312964
  41 H :    0.293616
  42 H :    0.250362
  43 N :   -0.402659
  44 H :    0.251596
  45 H :    0.313714
  46 H :    0.301104
  47 H :    0.306952
  48 N :   -0.449144
  49 H :    0.275487
  50 H :    0.315425
  51 H :    0.275608
  52 H :    0.343383
Sum of atomic charges:   -0.0000000

LOEWDIN ATOMIC CHARGES
----------------------
   0 P :    0.137029
   1 O :   -0.352353
   2 O :   -0.193596
   3 P :   -0.008397
   4 O :   -0.335165
   5 O :   -0.140557
   6 P :    0.040469
   7 O :   -0.281903
   8 O :   -0.166172
   9 P :    0.019319
  10 O :   -0.301845
  11 O :   -0.333827
  12 P :    0.059013
  13 O :   -0.270826
  14 O :   -0.287350
  15 P :    0.290885
  16 O :   -0.176242
  17 O :   -0.251861
  18 O :   -0.201493
  19 O :   -0.045312
  20 O :   -0.046339
  21 O :   -0.029632
  22 O :   -0.012457
  23 N :   -0.328005
  24 H :    0.137103
  25 H :    0.131467
  26 H :    0.135576
  27 H :    0.134402
  28 N :   -0.255747
  29 H :    0.144013
  30 H :    0.145315
  31 H :    0.141235
  32 H :    0.147737
  33 N :   -0.251476
  34 H :    0.148875
  35 H :    0.145433
  36 H :    0.140962
  37 H :    0.146272
  38 N :    0.003389
  39 H :    0.148726
  40 H :    0.161737
  41 H :    0.169917
  42 H :    0.164779
  43 N :    0.031005
  44 H :    0.161137
  45 H :    0.170163
  46 H :    0.172409
  47 H :    0.167357
  48 N :    0.008161
  49 H :    0.174924
  50 H :    0.168219
  51 H :    0.173884
  52 H :    0.149643

  Mayer bond orders larger than 0.100000
B(  0-P ,  1-O ) :   1.6047 B(  0-P ,  2-O ) :   1.1544 B(  0-P , 18-O ) :   0.4841
B(  1-O , 39-H ) :   0.2730 B(  2-O , 25-H ) :   0.7748 B(  3-P ,  4-O ) :   1.6759
B(  3-P ,  5-O ) :   1.3657 B(  3-P , 18-O ) :   1.4286 B(  3-P , 19-O ) :   0.9223
B(  4-O , 46-H ) :   0.1088 B(  5-O , 30-H ) :   0.6627 B(  6-P ,  7-O ) :   1.9740
B(  6-P ,  8-O ) :   1.2620 B(  6-P , 19-O ) :   1.1203 B(  6-P , 20-O ) :   1.1088
B(  8-O , 35-H ) :   0.6351 B(  9-P , 10-O ) :   1.9074 B(  9-P , 11-O ) :   1.5926
B(  9-P , 20-O ) :   0.9731 B(  9-P , 21-O ) :   0.9993 B( 11-O , 40-H ) :   0.1112
B( 12-P , 13-O ) :   1.6485 B( 12-P , 14-O ) :   1.8264 B( 12-P , 21-O ) :   1.1423
B( 12-P , 22-O ) :   0.8377 B( 13-O , 52-H ) :   0.2476 B( 14-O , 45-H ) :   0.1428
B( 15-P , 16-O ) :   2.1129 B( 15-P , 17-O ) :   1.8082 B( 15-P , 22-O ) :   1.3230
B( 23-N , 24-H ) :   0.8889 B( 23-N , 25-H ) :   0.1265 B( 23-N , 26-H ) :   0.9404
B( 23-N , 27-H ) :   0.9426 B( 28-N , 29-H ) :   0.9369 B( 28-N , 30-H ) :   0.2441
B( 28-N , 31-H ) :   0.9328 B( 28-N , 32-H ) :   0.8808 B( 33-N , 34-H ) :   0.8616
B( 33-N , 35-H ) :   0.2785 B( 33-N , 36-H ) :   0.9354 B( 33-N , 37-H ) :   0.9289
B( 38-N , 39-H ) :   0.6814 B( 38-N , 40-H ) :   0.8284 B( 38-N , 41-H ) :   0.8869
B( 38-N , 42-H ) :   0.9214 B( 43-N , 44-H ) :   0.8979 B( 43-N , 45-H ) :   0.7974
B( 43-N , 46-H ) :   0.8300 B( 43-N , 47-H ) :   0.8638 B( 48-N , 49-H ) :   0.9127
B( 48-N , 50-H ) :   0.8334 B( 48-N , 51-H ) :   0.9122 B( 48-N , 52-H ) :   0.6940

Dispersion correction           -0.128321458
FINAL SINGLE POINT ENERGY     -3670.641176291199

DIPOLE MOMENT
-------------

Method             : SCF
Type of density    : Electron Density
Multiplicity       :   1
Irrep              :   0
Energy             : -3670.5128548335910637 Eh
Basis              : AO
                                X                 Y                 Z
Electronic contribution:     23.321963952      10.658115136     -10.013689336
Nuclear contribution   :    -20.170191605     -10.830031616      10.032587702
                        -----------------------------------------
Total Dipole Moment    :      3.151772347      -0.171916480       0.018898366
                        -----------------------------------------
Magnitude (a.u.)       :      3.156514114
Magnitude (Debye)      :      8.023221262

Rotational constants in cm-1:             0.005228             0.002140             0.001939
Rotational constants in MHz :           156.732687            64.142048            58.117198

                             ****ORCA TERMINATED NORMALLY****
TOTAL RUN TIME: 0 days 2 hours 35 minutes 29 seconds 486 msec
