                         Program Version 6.1.0  -  RELEASE   -
|  1> ! B3LYP D3BJ def2-TZVP TightSCF Opt
|  2>
|  3> %pal
|  4>   nprocs 24
|  5> end
|  6>
|  7> * xyz 0 1
|  8> O     -3.9875083044    0.0553772574   -4.9116431456
|  9> P     -5.0347789318   -0.8205037293   -4.0756570123
| 10> H     -3.5435318942    0.6556846768   -4.2836401004
| 11> O     -6.2176524643    0.2139373204   -3.9385941594
| 12> O     -4.3057464250   -1.1865599943   -2.8092407873
| 13> P     -7.6262885260    0.0439403634   -3.1952195359
| 14> O     -8.4395561653    1.1496167755   -4.0191616067
| 15> O     -7.4831608059    0.4811420879   -1.7705199694
| 16> P     -9.4386958780    1.0024264267   -5.2287156516
| 17> O     -9.1430458679    2.3690301679   -6.0171921729
| 18> O    -10.8959164328    1.1288408895   -4.8538593630
| 19> H     -9.5563636226    3.0899048816   -5.5043943522
| 20> O     -5.4003048282   -2.0223789296   -4.9380018004
| 21> O     -8.1822086295   -1.3304042442   -3.5390117111
| 22> O     -9.1720751105   -0.1290308076   -6.2174355715
| 23> N     -4.0748176311   -3.5200710015   -3.2796939886
| 24> N     -7.7500601306   -2.1121299506   -5.7402502129
| 25> N    -11.7601687405   -0.1857597555   -6.6473421410
| 26> H     -4.0429555674   -2.6018390632   -2.7517919710
| 27> H     -3.1236757670   -3.7421750561   -3.5532997376
| 28> H     -4.5722697999   -4.1926559683   -2.7072544988
| 29> H     -4.6383707067   -3.2207732909   -4.1083396649
| 30> H     -8.0431559682   -2.0059773198   -4.7351852839
| 31> H     -8.1699154008   -1.2536771648   -6.1556159401
| 32> H     -8.0893075013   -2.9797768849   -6.1141166378
| 33> H     -6.7142272125   -2.0416064156   -5.6642007513
| 34> H    -10.7367734661   -0.3710142216   -6.7691756832
| 35> H    -11.7243720079    0.3869155116   -5.7546335862
| 36> H    -12.2856748237   -1.0327072256   -6.4630229081
| 37> H    -12.1009901020    0.4312597294   -7.3781726441
| 38> **                         ****END OF INPUT****
 Total Charge           Charge          ....    0
 Multiplicity           Mult            ....    1
 Number of Electrons    NEL             ....  160
 Basis Dimension        Dim             ....  598

ORBITAL ENERGIES
----------------

  NO   OCC          E(Eh)            E(eV)
   0   2.0000     -77.166768     -2099.8145
   1   2.0000     -77.164081     -2099.7414
   2   2.0000     -77.136265     -2098.9845
   3   2.0000     -19.144115      -520.9378
   4   2.0000     -19.141056      -520.8546
   5   2.0000     -19.129259      -520.5336
   6   2.0000     -19.127529      -520.4865
   7   2.0000     -19.090692      -519.4841
   8   2.0000     -19.087802      -519.4055
   9   2.0000     -19.070520      -518.9352
  10   2.0000     -19.070282      -518.9288
  11   2.0000     -19.048973      -518.3489
  12   2.0000     -19.016718      -517.4712
  13   2.0000     -14.401195      -391.8764
  14   2.0000     -14.395664      -391.7259
  15   2.0000     -14.307339      -389.3225
  16   2.0000      -6.632016      -180.4663
  17   2.0000      -6.629617      -180.4011
  18   2.0000      -6.601313      -179.6308
  19   2.0000      -4.795348      -130.4881
  20   2.0000      -4.794225      -130.4575
  21   2.0000      -4.792900      -130.4214
  22   2.0000      -4.792841      -130.4198
  23   2.0000      -4.791879      -130.3937
  24   2.0000      -4.790375      -130.3527
  25   2.0000      -4.765635      -129.6795
  26   2.0000      -4.764408      -129.6461
  27   2.0000      -4.759910      -129.5237
  28   2.0000      -1.094814       -29.7914
  29   2.0000      -1.074064       -29.2268
  30   2.0000      -1.035537       -28.1784
  31   2.0000      -1.011176       -27.5155
  32   2.0000      -0.995600       -27.0916
  33   2.0000      -0.994364       -27.0580
  34   2.0000      -0.966011       -26.2865
  35   2.0000      -0.961093       -26.1527
  36   2.0000      -0.948653       -25.8142
  37   2.0000      -0.939632       -25.5687
  38   2.0000      -0.937238       -25.5035
  39   2.0000      -0.896946       -24.4071
  40   2.0000      -0.880766       -23.9669
  41   2.0000      -0.659721       -17.9519
  42   2.0000      -0.609562       -16.5870
  43   2.0000      -0.589284       -16.0352
  44   2.0000      -0.584240       -15.8980
  45   2.0000      -0.572250       -15.5717
  46   2.0000      -0.568390       -15.4667
  47   2.0000      -0.552800       -15.0424
  48   2.0000      -0.548070       -14.9138
  49   2.0000      -0.545625       -14.8472
  50   2.0000      -0.536765       -14.6061
  51   2.0000      -0.524538       -14.2734
  52   2.0000      -0.511967       -13.9313
  53   2.0000      -0.503754       -13.7078
  54   2.0000      -0.473628       -12.8881
  55   2.0000      -0.457435       -12.4474
  56   2.0000      -0.440228       -11.9792
  57   2.0000      -0.433902       -11.8071
  58   2.0000      -0.419920       -11.4266
  59   2.0000      -0.400603       -10.9010
  60   2.0000      -0.395353       -10.7581
  61   2.0000      -0.383139       -10.4257
  62   2.0000      -0.374643       -10.1945
  63   2.0000      -0.363716        -9.8972
  64   2.0000      -0.360394        -9.8068
  65   2.0000      -0.354106        -9.6357
  66   2.0000      -0.344778        -9.3819
  67   2.0000      -0.329934        -8.9780
  68   2.0000      -0.326730        -8.8908
  69   2.0000      -0.321117        -8.7380
  70   2.0000      -0.308572        -8.3967
  71   2.0000      -0.302223        -8.2239
  72   2.0000      -0.286297        -7.7905
  73   2.0000      -0.284461        -7.7406
  74   2.0000      -0.280988        -7.6461
  75   2.0000      -0.278771        -7.5858
  76   2.0000      -0.277294        -7.5456
  77   2.0000      -0.273848        -7.4518
  78   2.0000      -0.234249        -6.3742
  79   2.0000      -0.223822        -6.0905
  80   0.0000      -0.015740        -0.4283
  81   0.0000      -0.009509        -0.2588
  82   0.0000       0.037452         1.0191
  83   0.0000       0.044466         1.2100
  84   0.0000       0.050532         1.3750

MULLIKEN ATOMIC CHARGES
-----------------------
   0 O :   -0.478839
   1 P :    0.924415
   2 H :    0.328426
   3 O :   -0.334005
   4 O :   -0.612368
   5 P :    0.822071
   6 O :   -0.317832
   7 O :   -0.557390
   8 P :    0.928739
   9 O :   -0.480704
  10 O :   -0.622069
  11 H :    0.326634
  12 O :   -0.687564
  13 O :   -0.631127
  14 O :   -0.694337
  15 N :   -0.445885
  16 N :   -0.493169
  17 N :   -0.445878
  18 H :    0.322170
  19 H :    0.266270
  20 H :    0.270355
  21 H :    0.314150
  22 H :    0.302442
  23 H :    0.305798
  24 H :    0.213439
  25 H :    0.303243
  26 H :    0.316222
  27 H :    0.320591
  28 H :    0.266995
  29 H :    0.269207
Sum of atomic charges:    0.0000000

LOEWDIN ATOMIC CHARGES
----------------------
   0 O :   -0.139500
   1 P :    0.009093
   2 H :    0.185157
   3 O :   -0.012712
   4 O :   -0.302060
   5 P :    0.004040
   6 O :   -0.002291
   7 O :   -0.311422
   8 P :    0.020851
   9 O :   -0.147544
  10 O :   -0.313340
  11 H :    0.183380
  12 O :   -0.321056
  13 O :   -0.304649
  14 O :   -0.325755
  15 N :    0.011751
  16 N :   -0.031700
  17 N :    0.010174
  18 H :    0.139893
  19 H :    0.170705
  20 H :    0.170041
  21 H :    0.164375
  22 H :    0.102595
  23 H :    0.129382
  24 H :    0.137438
  25 H :    0.125916
  26 H :    0.169503
  27 H :    0.136817
  28 H :    0.168154
  29 H :    0.172766

  Mayer bond orders larger than 0.100000
B(  0-O ,  1-P ) :   1.2161 B(  0-O ,  2-H ) :   0.8661 B(  1-P ,  3-O ) :   1.1406
B(  1-P ,  4-O ) :   1.6680 B(  1-P , 12-O ) :   1.4858 B(  3-O ,  5-P ) :   0.9585
B(  4-O , 18-H ) :   0.2464 B(  5-P ,  6-O ) :   0.9874 B(  5-P ,  7-O ) :   2.0988
B(  5-P , 13-O ) :   1.5772 B(  6-O ,  8-P ) :   1.1482 B(  8-P ,  9-O ) :   1.2004
B(  8-P , 10-O ) :   1.6444 B(  8-P , 14-O ) :   1.4900 B(  9-O , 11-H ) :   0.8677
B( 10-O , 27-H ) :   0.2580 B( 12-O , 21-H ) :   0.1687 B( 12-O , 25-H ) :   0.1583
B( 13-O , 22-H ) :   0.2296 B( 14-O , 23-H ) :   0.1453 B( 14-O , 26-H ) :   0.1577
B( 15-N , 18-H ) :   0.7175 B( 15-N , 19-H ) :   0.9145 B( 15-N , 20-H ) :   0.9111
B( 15-N , 21-H ) :   0.7853 B( 16-N , 22-H ) :   0.7471 B( 16-N , 23-H ) :   0.8042
B( 16-N , 24-H ) :   0.9331 B( 16-N , 25-H ) :   0.7966 B( 17-N , 26-H ) :   0.7912
B( 17-N , 27-H ) :   0.7103 B( 17-N , 28-H ) :   0.9122 B( 17-N , 29-H ) :   0.9131

Dispersion correction           -0.065087920
FINAL SINGLE POINT ENERGY     -1949.359442554800
Dispersion correction             ... done (  0.1 sec)
Dispersion correction           -0.063928461
FINAL SINGLE POINT ENERGY     -1949.383573224896
Dispersion correction             ... done (  0.1 sec)
Dispersion correction           -0.063018747
FINAL SINGLE POINT ENERGY     -1949.395716711585
Dispersion correction             ... done (  0.1 sec)
FINAL SINGLE POINT ENERGY     -1949.400780459167
FINAL SINGLE POINT ENERGY     -1949.402970766237
FINAL SINGLE POINT ENERGY     -1949.404863098067
FINAL SINGLE POINT ENERGY     -1949.406506040093
FINAL SINGLE POINT ENERGY     -1949.408226488279
FINAL SINGLE POINT ENERGY     -1949.410372695999
FINAL SINGLE POINT ENERGY     -1949.413439010081
FINAL SINGLE POINT ENERGY     -1949.450512825385
FINAL SINGLE POINT ENERGY     -1949.450804461572
FINAL SINGLE POINT ENERGY     -1949.450969591945
FINAL SINGLE POINT ENERGY     -1949.451136433330
FINAL SINGLE POINT ENERGY     -1949.451230926371
FINAL SINGLE POINT ENERGY     -1949.451313866453
FINAL SINGLE POINT ENERGY     -1949.451371827637
Dispersion correction           -0.065092255
FINAL SINGLE POINT ENERGY     -1949.451441049662
Dispersion correction             ... done (  0.1 sec)
Dispersion correction           -0.065112498
FINAL SINGLE POINT ENERGY     -1949.451505332800
Dispersion correction             ... done (  0.1 sec)

CARTESIAN COORDINATES (ANGSTROEM)
---------------------------------
  O     -3.629750    0.112321   -4.423501
  P     -4.722756   -1.003096   -4.769947
  H     -3.371529    0.090620   -3.495314
  O     -6.093684   -0.208614   -4.343072
  O     -4.560018   -2.162563   -3.823533
  P     -7.631391   -0.639567   -4.244258
  O     -8.318396    0.807332   -4.511672
  O     -7.973190   -1.013854   -2.832091
  P     -9.147752    1.357691   -5.772120
  O     -9.257087    2.913107   -5.470091
  O    -10.582958    0.792207   -5.588305
  H     -9.837630    3.116185   -4.727031
  O     -4.711168   -1.216992   -6.237337
  O     -8.009024   -1.611816   -5.313788
  O     -8.481848    1.145589   -7.065649
  N     -6.345984   -3.005127   -2.223354
  N     -6.893459   -0.967409   -7.671629
  N    -10.773664   -1.372230   -4.157066
  H     -5.526196   -2.697772   -2.911370
  H     -6.022989   -3.065252   -1.263435
  H     -7.088159   -2.244438   -2.333488
  H     -6.734456   -3.898968   -2.509048
  H     -7.473926   -1.479392   -6.977539
  H     -7.313313   -0.019223   -7.685774
  H     -6.886406   -1.397550   -8.588286
  H     -5.927962   -0.963526   -7.224948
  H    -10.368420   -2.090750   -4.748426
  H    -10.680491   -0.068811   -4.998059
  H    -10.179057   -1.306341   -3.332024
  H    -11.710906   -1.642725   -3.882225

Dispersion correction           -0.065135058
FINAL SINGLE POINT ENERGY     -1949.451558581779
Dispersion correction             ... done (  0.1 sec)
                             ****ORCA TERMINATED NORMALLY****
TOTAL RUN TIME: 3 days 1 hours 37 minutes 48 seconds 181 msec
