                         Program Version 6.1.0  -  RELEASE   -
|  1> ! CAM-B3LYP cc-pVDZ VeryTightSCF VeryTightOpt NumFreq
|  2>
|  3> %pal
|  4>  nprocs 64
|  5> end
|  6>
|  7> * xyz 0 1
|  8> C     -0.5916204639   18.6677891391   40.1581209697
|  9> C     -0.8460334639   18.6677891391   41.6784289697
| 10> C      0.5244325361   19.6236691391   39.7090849697
| 11> H     -0.3231488303   17.6751576637   39.8623070953
| 12> H     -1.4940384242   19.0073186475   39.6941579862
| 13> H      0.0338426402   18.3334656977   42.1872963299
| 14> H     -1.0887104165   19.6592309207   41.9994448611
| 15> H     -1.6598340300   18.0106707988   41.9038712853
| 16> H      1.4513224067   19.3221565597   40.1505206327
| 17> H      0.6111016243   19.5949876955   38.6429864958
| 18> H      0.2880659251   20.6195149020   40.0210499581
| 19> **                         ****END OF INPUT****
 Total Charge           Charge          ....    0
 Multiplicity           Mult            ....    1
 Number of Electrons    NEL             ....   26
FINAL SINGLE POINT ENERGY      -119.052092323154
FINAL SINGLE POINT ENERGY      -119.058461163520
FINAL SINGLE POINT ENERGY      -119.059159859664
FINAL SINGLE POINT ENERGY      -119.059405764958
FINAL SINGLE POINT ENERGY      -119.059416053212
FINAL SINGLE POINT ENERGY      -119.059416797134
FINAL SINGLE POINT ENERGY      -119.059417090369
FINAL SINGLE POINT ENERGY      -119.059416736958
                    ***********************HURRAY********************

CARTESIAN COORDINATES (ANGSTROEM)
---------------------------------
  C     -0.609669   18.676156   40.151905
  C     -0.834324   18.672159   41.659945
  C      0.514683   19.612926   39.724177
  H     -0.383959   17.651221   39.811007
  H     -1.544126   18.966125   39.641615
  H      0.074755   18.354232   42.196226
  H     -1.096479   19.678514   42.025402
  H     -1.648196   17.989598   41.948677
  H      1.470607   19.326031   40.192165
  H      0.660707   19.602483   38.633210
  H      0.301381   20.652306   40.022940

 Multiplicity           Mult            ....    1
 Number of Electrons    NEL             ....   26
 Basis Dimension        Dim             ....   82

ORBITAL ENERGIES
----------------

  NO   OCC          E(Eh)            E(eV)
   0   2.0000     -10.253155      -279.0025
   1   2.0000     -10.246585      -278.8237
   2   2.0000     -10.246557      -278.8230
   3   2.0000      -0.860661       -23.4198
   4   2.0000      -0.755647       -20.5622
   5   2.0000      -0.655003       -17.8235
   6   2.0000      -0.522354       -14.2140
   7   2.0000      -0.501427       -13.6445
   8   2.0000      -0.460448       -12.5294
   9   2.0000      -0.440294       -11.9810
  10   2.0000      -0.397809       -10.8249
  11   2.0000      -0.395787       -10.7699
  12   2.0000      -0.384533       -10.4637
  13   0.0000       0.105503         2.8709
  14   0.0000       0.151365         4.1189
  15   0.0000       0.153500         4.1770
  16   0.0000       0.153660         4.1813
  17   0.0000       0.182503         4.9662

MULLIKEN ATOMIC CHARGES
-----------------------
   0 C :   -0.068754
   1 C :   -0.033848
   2 C :   -0.034073
   3 H :    0.011985
   4 H :    0.011916
   5 H :    0.019497
   6 H :    0.019672
   7 H :    0.017155
   8 H :    0.019640
   9 H :    0.017263
  10 H :    0.019549
Sum of atomic charges:   -0.0000000

LOEWDIN ATOMIC CHARGES
----------------------
   0 C :   -0.061798
   1 C :   -0.074937
   2 C :   -0.074967
   3 H :    0.025914
   4 H :    0.025899
   5 H :    0.026020
   6 H :    0.026052
   7 H :    0.027859
   8 H :    0.026050
   9 H :    0.027880
  10 H :    0.026026

  Mayer bond orders larger than 0.100000
B(  0-C ,  1-C ) :   1.0968 B(  0-C ,  2-C ) :   1.0967 B(  0-C ,  3-H ) :   0.9547
B(  0-C ,  4-H ) :   0.9547 B(  1-C ,  5-H ) :   0.9728 B(  1-C ,  6-H ) :   0.9728
B(  1-C ,  7-H ) :   0.9707 B(  2-C ,  8-H ) :   0.9729 B(  2-C ,  9-H ) :   0.9707
B(  2-C , 10-H ) :   0.9729

FINAL SINGLE POINT ENERGY      -119.059416989432

DIPOLE MOMENT
-------------

Method             : SCF
Type of density    : Electron Density
Multiplicity       :   1
Irrep              :   0
Energy             :  -119.0594169894321226 Eh
Basis              : AO
                                X                 Y                 Z
Electronic contribution:     -0.253304079      -0.262200019      -0.303912933
Nuclear contribution   :      0.239837927       0.248279798       0.287609255
                        -----------------------------------------
Total Dipole Moment    :     -0.013466152      -0.013920221      -0.016303677
                        -----------------------------------------
Magnitude (a.u.)       :      0.025316392
Magnitude (Debye)      :      0.064349154

VIBRATIONAL FREQUENCIES
-----------------------

Scaling factor for frequencies =  1.000000000  (already applied!)

     0:       0.00 cm**-1
     1:       0.00 cm**-1
     2:       0.00 cm**-1
     3:       0.00 cm**-1
     4:       0.00 cm**-1
     5:       0.00 cm**-1
     6:     228.66 cm**-1
     7:     278.84 cm**-1
     8:     367.91 cm**-1
     9:     756.77 cm**-1
    10:     897.21 cm**-1
    11:     909.25 cm**-1
    12:     932.03 cm**-1
    13:    1088.66 cm**-1
    14:    1178.92 cm**-1
    15:    1209.02 cm**-1
    16:    1313.50 cm**-1
    17:    1363.59 cm**-1
    18:    1407.21 cm**-1
    19:    1413.04 cm**-1
    20:    1466.15 cm**-1
    21:    1469.67 cm**-1
    22:    1477.07 cm**-1
    23:    1484.23 cm**-1
    24:    1492.69 cm**-1
    25:    3045.58 cm**-1
    26:    3046.45 cm**-1
    27:    3049.91 cm**-1
    28:    3077.00 cm**-1
    29:    3114.93 cm**-1
    30:    3124.28 cm**-1
    31:    3126.64 cm**-1
    32:    3128.88 cm**-1

IR SPECTRUM
-----------

 Mode   freq       eps      Int      T**2         TX        TY        TZ
       cm**-1   L/(mol*cm) km/mol    a.u.
----------------------------------------------------------------------------
  6:    228.66   0.000000    0.00  0.000000  ( 0.000190 -0.000038  0.000227)
  7:    278.84   0.000000    0.00  0.000000  ( 0.000055 -0.000311 -0.000003)
  8:    367.91   0.000028    0.14  0.000024  ( 0.002672  0.002709  0.003106)
  9:    756.77   0.000736    3.72  0.000303  (-0.011437  0.013047 -0.001565)
 10:    897.21   0.000192    0.97  0.000067  ( 0.004360  0.004523  0.005235)
 11:    909.25   0.000000    0.00  0.000000  ( 0.000248 -0.000090  0.000165)
 12:    932.03   0.000369    1.86  0.000123  ( 0.005798  0.004009 -0.008586)
 13:   1088.66   0.000067    0.34  0.000019  ( 0.002372  0.001637 -0.003318)
 14:   1178.92   0.000261    1.32  0.000069  ( 0.004464  0.004566  0.005315)
 15:   1209.02   0.000077    0.39  0.000020  (-0.002897  0.003356 -0.000391)
 16:   1313.50   0.000000    0.00  0.000000  ( 0.000065 -0.000118 -0.000052)
 17:   1363.59   0.000484    2.45  0.000111  (-0.005556 -0.003897  0.008042)
 18:   1407.21   0.001298    6.56  0.000288  ( 0.008971  0.006248 -0.012977)
 19:   1413.04   0.000366    1.85  0.000081  ( 0.004763  0.004940  0.005807)
 20:   1466.15   0.000000    0.00  0.000000  ( 0.000277 -0.000082  0.000088)
 21:   1469.67   0.000028    0.14  0.000006  ( 0.001288  0.001505  0.001450)
 22:   1477.07   0.000252    1.27  0.000053  (-0.003686 -0.002861  0.005613)
 23:   1484.23   0.002480   12.53  0.000521  (-0.015194  0.016894 -0.002265)
 24:   1492.69   0.000841    4.25  0.000176  (-0.007032 -0.007306 -0.008538)
 25:   3045.58   0.006058   30.62  0.000621  (-0.013305 -0.009241  0.018929)
 26:   3046.45   0.009439   47.70  0.000967  ( 0.016550  0.017142  0.019980)
 27:   3049.91   0.000001    0.00  0.000000  (-0.000173 -0.000173  0.000009)
 28:   3077.00   0.001265    6.39  0.000128  (-0.007472  0.008447 -0.001065)
 29:   3114.93   0.000000    0.00  0.000000  ( 0.000015  0.000185 -0.000022)
 30:   3124.28   0.016981   85.81  0.001696  ( 0.027278 -0.030562  0.004239)
 31:   3126.64   0.004994   25.24  0.000498  ( 0.012264  0.008567 -0.016572)
 32:   3128.88   0.008511   43.01  0.000849  ( 0.014989  0.016239  0.018987)

--------------------------
THERMOCHEMISTRY AT 298.15K
--------------------------

Temperature         ...   298.15 K
Pressure            ...     1.00 atm
Total Mass          ...    44.10 AMU
Quasi RRHO          ...     True
Cut-Off Frequency   ...     1.00 cm^-1

Throughout the following assumptions are being made:
  (1) The electronic state is orbitally nondegenerate
  (2) There are no thermally accessible electronically excited states
  (3) Hindered rotations indicated by low frequency modes are not
      treated as such but are treated as vibrations and this may
      cause some error
  (4) All equations used are the standard statistical mechanics
      equations for an ideal gas
  (5) All vibrations are strictly harmonic

freq.     228.66  E(vib)   ...       0.32
freq.     278.84  E(vib)   ...       0.28
freq.     367.91  E(vib)   ...       0.21
freq.     756.77  E(vib)   ...       0.06
freq.     897.21  E(vib)   ...       0.03
freq.     909.25  E(vib)   ...       0.03
freq.     932.03  E(vib)   ...       0.03
freq.    1088.66  E(vib)   ...       0.02
freq.    1178.92  E(vib)   ...       0.01
freq.    1209.02  E(vib)   ...       0.01
freq.    1313.50  E(vib)   ...       0.01
freq.    1363.59  E(vib)   ...       0.01
freq.    1407.21  E(vib)   ...       0.00
freq.    1413.04  E(vib)   ...       0.00
freq.    1466.15  E(vib)   ...       0.00
freq.    1469.67  E(vib)   ...       0.00
freq.    1477.07  E(vib)   ...       0.00
freq.    1484.23  E(vib)   ...       0.00
freq.    1492.69  E(vib)   ...       0.00
freq.    3045.58  E(vib)   ...       0.00
freq.    3046.45  E(vib)   ...       0.00
freq.    3049.91  E(vib)   ...       0.00
freq.    3077.00  E(vib)   ...       0.00
freq.    3114.93  E(vib)   ...       0.00
freq.    3124.28  E(vib)   ...       0.00
freq.    3126.64  E(vib)   ...       0.00
freq.    3128.88  E(vib)   ...       0.00

------------
INNER ENERGY
------------

The inner energy is: U= E(el) + E(ZPE) + E(vib) + E(rot) + E(trans)
    E(el)   - is the total energy from the electronic structure calculation
              = E(kin-el) + E(nuc-el) + E(el-el) + E(nuc-nuc)
    E(ZPE)  - the the zero temperature vibrational energy from the frequency calculation
    E(vib)  - the the finite temperature correction to E(ZPE) due to population
              of excited vibrational states
    E(rot)  - is the rotational thermal energy
    E(trans)- is the translational thermal energy

Summary of contributions to the inner energy U:
Electronic energy                ...   -119.05941691 Eh
Zero point energy                ...      0.10353837 Eh      64.97 kcal/mol
Thermal vibrational correction   ...      0.00167377 Eh       1.05 kcal/mol
Thermal rotational correction    ...      0.00141627 Eh       0.89 kcal/mol
Thermal translational correction ...      0.00141627 Eh       0.89 kcal/mol
-----------------------------------------------------------------------
Total thermal energy                   -118.95137222 Eh

Summary of corrections to the electronic energy:
(perhaps to be used in another calculation)
Total thermal correction                  0.00450631 Eh       2.83 kcal/mol
Non-thermal (ZPE) correction              0.10353837 Eh      64.97 kcal/mol
-----------------------------------------------------------------------
Total correction                          0.10804468 Eh      67.80 kcal/mol

--------
ENTHALPY
--------

The enthalpy is H = U + kB*T
                kB is Boltzmann's constant
Total thermal energy              ...   -118.95137222 Eh
Thermal Enthalpy correction       ...      0.00094421 Eh       0.59 kcal/mol
-----------------------------------------------------------------------
Total Enthalpy                    ...   -118.95042802 Eh

Note: Only C1 symmetry has been detected, increase convergence thresholds
      if your molecule has a higher symmetry. Symmetry factor of 1.0 is
      used for the rotational entropy correction.

Note: Rotational entropy computed according to Herzberg
Infrared and Raman Spectra, Chapter V,1, Van Nostrand Reinhold, 1945
Point Group:  C1, Symmetry Number:   1
Rotational constants in cm-1:     0.979083     0.280979     0.248912

Vibrational entropy computed according to the QRRHO of S. Grimme
Chem.Eur.J. 2012 18 9955 using a reference frequency of 100.0 cm-1

-------
ENTROPY
-------

The entropy contributions are T*S = T*(S(el)+S(vib)+S(rot)+S(trans))
     S(el)   - electronic entropy
     S(vib)  - vibrational entropy
     S(rot)  - rotational entropy
     S(trans)- translational entropy
The entropies will be listed as multiplied by the temperature to get
units of energy

Electronic entropy                ...      0.00000000 Eh      0.00 kcal/mol
Vibrational entropy               ...      0.00260000 Eh      1.63 kcal/mol
Rotational entropy                ...      0.01077661 Eh      6.76 kcal/mol
Translational entropy             ...      0.01771163 Eh     11.11 kcal/mol
-----------------------------------------------------------------------
Final entropy term                ...      0.03108824 Eh     19.51 kcal/mol

In case the symmetry of your molecule has not been determined correctly
or in case you have a reason to use a different symmetry number we print
out the resulting rotational entropy values for sn=1,12:

 non-linear molecules -----------------------------------
|  sn= 1 | S(rot)=       0.01077661 Eh      6.76 kcal/mol|
|  sn= 2 | S(rot)=       0.01012216 Eh      6.35 kcal/mol|
|  sn= 3 | S(rot)=       0.00973932 Eh      6.11 kcal/mol|
|  sn= 4 | S(rot)=       0.00946770 Eh      5.94 kcal/mol|
|  sn= 5 | S(rot)=       0.00925701 Eh      5.81 kcal/mol|
|  sn= 6 | S(rot)=       0.00908487 Eh      5.70 kcal/mol|
|  sn= 7 | S(rot)=       0.00893932 Eh      5.61 kcal/mol|
|  sn= 8 | S(rot)=       0.00881324 Eh      5.53 kcal/mol|
|  sn= 9 | S(rot)=       0.00870203 Eh      5.46 kcal/mol|
|  sn=10 | S(rot)=       0.00860256 Eh      5.40 kcal/mol|
|  sn=11 | S(rot)=       0.00851257 Eh      5.34 kcal/mol|
|  sn=12 | S(rot)=       0.00843041 Eh      5.29 kcal/mol|
 linear molecules ---------------------------------------
|  Dinfh | S(rot)=       0.00663884 Eh      4.17 kcal/mol|
|  Cinfv | S(rot)=       0.00729329 Eh      4.58 kcal/mol|
 --------------------------------------------------------

-------------------
GIBBS FREE ENERGY
-------------------

The Gibbs free energy is G = H - T*S

Total enthalpy                    ...   -118.95042802 Eh
Total entropy correction          ...     -0.03108824 Eh    -19.51 kcal/mol
-----------------------------------------------------------------------
Final Gibbs free energy         ...   -118.98151626 Eh

For completeness - the Gibbs free energy minus the electronic energy
G-E(el)                           ...      0.07790065 Eh     48.88 kcal/mol

                             ****ORCA TERMINATED NORMALLY****
TOTAL RUN TIME: 0 days 0 hours 9 minutes 56 seconds 714 msec
