                         Program Version 6.1.0  -  RELEASE   -
|  1> ! B3LYP D3BJ def2-TZVP TightSCF SP
|  2>
|  3> %pal
|  4>   nprocs 24
|  5> end
|  6>
|  7> * xyz 0 1
|  8> C      0.1071705144   -1.7940344365    1.1963960852
|  9> C      1.2125007519   -1.6511442406    0.1273905721
| 10> H     19.4669738473    6.5396023265    5.1073401344
| 11> H     18.5362436879    6.6146853440    6.5984927130
| 12> C      0.5754057727   -1.2075647089    2.5377151032
| 13> C      0.7527673791   -1.1112602125   -1.2362619053
| 14> H      1.9847333640   -0.9730212912    0.5019222556
| 15> H      1.7100058554   -2.6166320447   -0.0210405665
| 16> C      1.9646682914   -0.9013460700   -2.1700384536
| 17> H     -0.6670612791   -3.6534252870    0.3663182099
| 18> C     -0.3119397040   -1.9996693239   -1.8849322747
| 19> C      1.9929884189    0.4284766654   -2.9401455877
| 20> H      2.8831940902   -0.9522950471   -1.5781596383
| 21> H      2.0243613682   -1.7295567378   -2.8857536244
| 22> C      3.3076576820    0.5601486003   -3.7395913569
| 23> H     -0.6045669517   -1.6169763805   -2.8626338977
| 24> C      0.7662930618    0.6104596735   -3.8381611146
| 25> C      4.0185900197    1.9188519110   -3.6361259852
| 26> H      4.0130397063   -0.2011315279   -3.3937941628
| 27> H      3.1204266896    0.3351754578   -4.7960722864
| 28> C      5.3732444338    1.8780414325   -4.3774539453
| 29> H      0.8202987416    1.5447505404   -4.3969421102
| 30> C      3.1440811758    3.0761832985   -4.1258080381
| 31> C      6.5720578663    2.4464546022   -3.6035343940
| 32> H      5.6101039584    0.8410559370   -4.6323166529
| 33> H      5.2850067328    2.4062847242   -5.3337671695
| 34> C      7.8642017268    2.1897329463   -4.3923050900
| 35> H      3.6791089444    4.0248936593   -4.0743251725
| 36> C      6.3875941490    3.9195253320   -3.2378076166
| 37> C      9.1788515781    2.5656168063   -3.6729971872
| 38> H      7.8872966409    1.1256085724   -4.6445324732
| 39> H      7.8084327912    2.7207633073   -5.3495563329
| 40> C     10.2046134646    1.4289049211   -3.8078787262
| 41> H      7.2293804400    4.2948109819   -2.6550097601
| 42> C      9.7233038594    3.9091119713   -4.1648692909
| 43> C     11.5372778974    1.6287763914   -3.0543153166
| 44> H      9.7241965594    0.5162014371   -3.4435730199
| 45> H     10.4070567493    1.2555859361   -4.8713379160
| 46> C     11.9340712342    0.3379144578   -2.3196370189
| 47> H     10.5911168432    4.2334517169   -3.5886465021
| 48> C     12.6421410635    2.1339231874   -3.9861375818
| 49> C     13.1978373452    0.4256122873   -1.4374802517
| 50> H     11.0843971898    0.0481787026   -1.6944950336
| 51> H     12.0525862141   -0.4680583288   -3.0535051906
| 52> C     12.9534451663   -0.2534603079   -0.0803995337
| 53> H     13.5530394009    2.3839330512   -3.4402982632
| 54> C     14.4287542294   -0.1370282821   -2.1529335085
| 55> C     14.1023226663   -0.1311648252    0.9444574785
| 56> H     12.0477063469    0.1876823787    0.3457705765
| 57> H     12.7195230818   -1.3113337546   -0.2477433720
| 58> C     13.5550714972    0.2704555768    2.3233906264
| 59> H     15.3399111065    0.0123265436   -1.5717416096
| 60> C     14.9467820448   -1.4069516806    1.0033896699
| 61> C     14.6199741593    0.5598221916    3.4038077440
| 62> H     12.9399566229    1.1635818618    2.1807956126
| 63> H     12.8707176360   -0.5096616583    2.6767732963
| 64> C     14.2930311556    1.8665092932    4.1439700232
| 65> H     15.8195389731   -1.2871169240    1.6469300699
| 66> C     14.7938782536   -0.6237294266    4.3593089671
| 67> C     15.3535479204    2.3458881604    5.1590924831
| 68> H     14.1505825426    2.6415409527    3.3852140852
| 69> H     13.3244365947    1.7590414640    4.6462069290
| 70> C     15.6218760228    3.8489965188    4.9804195801
| 71> H     15.6223110196   -0.4686271678    5.0521926496
| 72> C     14.9650978235    1.9850242105    6.5951336060
| 73> C     16.7413166267    4.4450104098    5.8598195671
| 74> H     15.8752489425    4.0074568246    3.9278440703
| 75> H     14.6899091758    4.4016751799    5.1488960559
| 76> C     17.6256053048    5.3920095059    5.0346297153
| 77> H     15.7588052541    2.2254682072    7.3038719829
| 78> C     16.1780166601    5.1422406931    7.1018882843
| 79> C     18.8323283779    5.9580396937    5.7789987882
| 80> H     17.9754071106    4.8483518799    4.1514343784
| 81> H     17.0055881376    6.2146382257    4.6591618823
| 82> H     19.4435490733    5.1553422244    6.2008435489
| 83> H     -0.2504764845   -3.2678966553    4.1530607526
| 84> C     -0.3652399771   -3.2439035000    1.3304893527
| 85> C     -0.4914229605   -1.1636187444    3.6546157013
| 86> H      1.4514297022   -1.7677756770    2.8844621619
| 87> H      0.9298256304   -0.1913355686    2.3424887955
| 88> C     -0.5104516556    0.2243498010    4.3169850656
| 89> H     -0.6416694529   -0.7758032226    6.9091134844
| 90> C     -0.3031346261   -2.3034160784    4.6587105366
| 91> C     -1.6106220491    0.4524307359    5.3785685727
| 92> H      0.4745590151    0.4246348014    4.7553599426
| 93> H     -0.6327062350    0.9552236778    3.5133315656
| 94> C     -2.2627496241    1.8498046542    5.2579133070
| 95> H     -4.0229150668    0.2838941169    6.8534776162
| 96> C     -1.0707403543    0.2193195760    6.7949126909
| 97> C     -3.7953333730    1.8831553471    5.3795173402
| 98> H     -1.8311257950    2.5259809402    6.0053460933
| 99> H     -2.0111285696    2.2807076313    4.2856430988
|100> C     -4.3257944117    3.3112195113    5.1229414512
|101> H     -6.5584569829    1.5870968784    4.8024245084
|102> C     -4.2953045627    1.3313456453    6.7167231443
|103> C     -5.5278062466    3.4095660845    4.1729869207
|104> H     -4.5881523277    3.7826757300    6.0772893890
|105> H     -3.5225088224    3.9220875521    4.7004320695
|106> C     -5.8749916609    4.8746083395    3.9038549146
|107> H     -6.1832039948    5.3741578486    4.8269578953
|108> C     -6.7571766152    2.6522342090    4.6773707940
|109> H     -5.0176151812    5.4189790014    3.5016962551
|110> H     -6.6961078104    4.9627810968    3.1889624659
|111> H     -5.2250857166    2.9555126941    3.2207106632
|112> H     -7.0884989425    3.0477279017    5.6420165992
|113> H     -7.5876604004    2.7524258029    3.9749135001
|114> H     -4.1838956262    1.2339634883    4.5845678117
|115> H     -3.8706575890    1.9006222432    7.5482635116
|116> H     -5.3807749177    1.4010437626    6.7909426168
|117> H     -2.3981900993   -0.2865493797    5.1864101851
|118> H     -0.2832918980    0.9455037506    7.0145948142
|119> H     -1.8477743038    0.3382838955    7.5500584422
|120> H     -1.4737831369   -1.2953734237    3.1838645252
|121> H      0.6273399572   -2.1722382197    5.2178853931
|122> H     -1.1228928474   -2.3530039829    5.3765153140
|123> H     -0.7512704055   -1.1906563257    0.8750280252
|124> H      0.4408991242   -3.8727087933    1.7186912493
|125> H     -1.2159517205   -3.3343453120    2.0077843552
|126> H      0.3002409573   -0.1294765218   -1.0471121540
|127> H      0.0733107022   -3.0129219906   -2.0295684723
|128> H     -1.2134019033   -2.0679105405   -1.2742349850
|129> H      1.9773717914    1.2264822824   -2.1870616668
|130> H      0.7008976980   -0.2049941236   -4.5638226559
|131> H     -0.1609951155    0.6237158805   -3.2635066596
|132> H      4.2230350433    2.0827808969   -2.5704670569
|133> H      2.8509148465    2.9191084235   -5.1675764694
|134> H      2.2339668214    3.1782783825   -3.5330044380
|135> H      6.6469001985    1.8798476005   -2.6652461908
|136> H      6.2989267090    4.5362548005   -4.1368682200
|137> H      5.4889203246    4.0713431418   -2.6387778370
|138> H      8.9611498747    2.6648698851   -2.6020397034
|139> H     10.0236068732    3.8385130024   -5.2140748486
|140> H      8.9683191324    4.6922423926   -4.0921235293
|141> H     11.3754137279    2.3908752079   -2.2811485322
|142> H     12.8929641261    1.3705059788   -4.7278070375
|143> H     12.3274341421    3.0265795030   -4.5262318000
|144> H     13.3875989352    1.4857835881   -1.2265035127
|145> H     14.3125584015   -1.2110507195   -2.3232662358
|146> H     14.5770777811    0.3358697131   -3.1236831130
|147> H     14.7564394137    0.6876821510    0.6189095427
|148> H     14.3537719002   -2.2390384972    1.3932526700
|149> H     15.3043229692   -1.6925176178    0.0139718682
|150> H     15.5782780576    0.7213990632    2.8940995081
|151> H     13.8854774976   -0.7736454643    4.9494410116
|152> H     14.9888987441   -1.5476290691    3.8144954455
|153> H     16.2951610168    1.8317475890    4.9279475329
|154> H     14.0677241937    2.5324912514    6.8966374813
|155> H     14.7491757793    0.9209527988    6.6914428190
|156> H     17.3823439370    3.6197637401    6.1958492118
|157> H     15.6181099922    6.0367270062    6.8126701798
|158> H     15.4976295688    4.4917455625    7.6506467556
|159> H     16.9666274951    5.4503701974    7.7898172490
|160> **                         ****END OF INPUT****

CARTESIAN COORDINATES (ANGSTROEM)
---------------------------------
  C      0.107171   -1.794034    1.196396
  C      1.212501   -1.651144    0.127391
  H     19.466974    6.539602    5.107340
  H     18.536244    6.614685    6.598493
  C      0.575406   -1.207565    2.537715
  C      0.752767   -1.111260   -1.236262
  H      1.984733   -0.973021    0.501922
  H      1.710006   -2.616632   -0.021041
  C      1.964668   -0.901346   -2.170038
  H     -0.667061   -3.653425    0.366318
  C     -0.311940   -1.999669   -1.884932
  C      1.992988    0.428477   -2.940146
  H      2.883194   -0.952295   -1.578160
  H      2.024361   -1.729557   -2.885754
  C      3.307658    0.560149   -3.739591
  H     -0.604567   -1.616976   -2.862634
  C      0.766293    0.610460   -3.838161
  C      4.018590    1.918852   -3.636126
  H      4.013040   -0.201132   -3.393794
  H      3.120427    0.335175   -4.796072
  C      5.373244    1.878041   -4.377454
  H      0.820299    1.544751   -4.396942
  C      3.144081    3.076183   -4.125808
  C      6.572058    2.446455   -3.603534
  H      5.610104    0.841056   -4.632317
  H      5.285007    2.406285   -5.333767
  C      7.864202    2.189733   -4.392305
  H      3.679109    4.024894   -4.074325
  C      6.387594    3.919525   -3.237808
  C      9.178852    2.565617   -3.672997
  H      7.887297    1.125609   -4.644532
  H      7.808433    2.720763   -5.349556
  C     10.204613    1.428905   -3.807879
  H      7.229380    4.294811   -2.655010
  C      9.723304    3.909112   -4.164869
  C     11.537278    1.628776   -3.054315
  H      9.724197    0.516201   -3.443573
  H     10.407057    1.255586   -4.871338
  C     11.934071    0.337914   -2.319637
  H     10.591117    4.233452   -3.588647
  C     12.642141    2.133923   -3.986138
  C     13.197837    0.425612   -1.437480
  H     11.084397    0.048179   -1.694495
  H     12.052586   -0.468058   -3.053505
  C     12.953445   -0.253460   -0.080400
  H     13.553039    2.383933   -3.440298
  C     14.428754   -0.137028   -2.152934
  C     14.102323   -0.131165    0.944457
  H     12.047706    0.187682    0.345771
  H     12.719523   -1.311334   -0.247743
  C     13.555071    0.270456    2.323391
  H     15.339911    0.012327   -1.571742
  C     14.946782   -1.406952    1.003390
  C     14.619974    0.559822    3.403808
  H     12.939957    1.163582    2.180796
  H     12.870718   -0.509662    2.676773
  C     14.293031    1.866509    4.143970
  H     15.819539   -1.287117    1.646930
  C     14.793878   -0.623729    4.359309
  C     15.353548    2.345888    5.159092
  H     14.150583    2.641541    3.385214
  H     13.324437    1.759041    4.646207
  C     15.621876    3.848997    4.980420
  H     15.622311   -0.468627    5.052193
  C     14.965098    1.985024    6.595134
  C     16.741317    4.445010    5.859820
  H     15.875249    4.007457    3.927844
  H     14.689909    4.401675    5.148896
  C     17.625605    5.392010    5.034630
  H     15.758805    2.225468    7.303872
  C     16.178017    5.142241    7.101888
  C     18.832328    5.958040    5.778999
  H     17.975407    4.848352    4.151434
  H     17.005588    6.214638    4.659162
  H     19.443549    5.155342    6.200844
  H     -0.250476   -3.267897    4.153061
  C     -0.365240   -3.243904    1.330489
  C     -0.491423   -1.163619    3.654616
  H      1.451430   -1.767776    2.884462
  H      0.929826   -0.191336    2.342489
  C     -0.510452    0.224350    4.316985
  H     -0.641669   -0.775803    6.909113
  C     -0.303135   -2.303416    4.658711
  C     -1.610622    0.452431    5.378569
  H      0.474559    0.424635    4.755360
  H     -0.632706    0.955224    3.513332
  C     -2.262750    1.849805    5.257913
  H     -4.022915    0.283894    6.853478
  C     -1.070740    0.219320    6.794913
  C     -3.795333    1.883155    5.379517
  H     -1.831126    2.525981    6.005346
  H     -2.011129    2.280708    4.285643
  C     -4.325794    3.311220    5.122941
  H     -6.558457    1.587097    4.802425
  C     -4.295305    1.331346    6.716723
  C     -5.527806    3.409566    4.172987
  H     -4.588152    3.782676    6.077289
  H     -3.522509    3.922088    4.700432
  C     -5.874992    4.874608    3.903855
  H     -6.183204    5.374158    4.826958
  C     -6.757177    2.652234    4.677371
  H     -5.017615    5.418979    3.501696
  H     -6.696108    4.962781    3.188962
  H     -5.225086    2.955513    3.220711
  H     -7.088499    3.047728    5.642017
  H     -7.587660    2.752426    3.974914
  H     -4.183896    1.233963    4.584568
  H     -3.870658    1.900622    7.548264
  H     -5.380775    1.401044    6.790943
  H     -2.398190   -0.286549    5.186410
  H     -0.283292    0.945504    7.014595
  H     -1.847774    0.338284    7.550058
  H     -1.473783   -1.295373    3.183865
  H      0.627340   -2.172238    5.217885
  H     -1.122893   -2.353004    5.376515
  H     -0.751270   -1.190656    0.875028
  H      0.440899   -3.872709    1.718691
  H     -1.215952   -3.334345    2.007784
  H      0.300241   -0.129477   -1.047112
  H      0.073311   -3.012922   -2.029568
  H     -1.213402   -2.067911   -1.274235
  H      1.977372    1.226482   -2.187062
  H      0.700898   -0.204994   -4.563823
  H     -0.160995    0.623716   -3.263507
  H      4.223035    2.082781   -2.570467
  H      2.850915    2.919108   -5.167576
  H      2.233967    3.178278   -3.533004
  H      6.646900    1.879848   -2.665246
  H      6.298927    4.536255   -4.136868
  H      5.488920    4.071343   -2.638778
  H      8.961150    2.664870   -2.602040
  H     10.023607    3.838513   -5.214075
  H      8.968319    4.692242   -4.092124
  H     11.375414    2.390875   -2.281149
  H     12.892964    1.370506   -4.727807
  H     12.327434    3.026580   -4.526232
  H     13.387599    1.485784   -1.226504
  H     14.312558   -1.211051   -2.323266
  H     14.577078    0.335870   -3.123683
  H     14.756439    0.687682    0.618910
  H     14.353772   -2.239038    1.393253
  H     15.304323   -1.692518    0.013972
  H     15.578278    0.721399    2.894100
  H     13.885477   -0.773645    4.949441
  H     14.988899   -1.547629    3.814495
  H     16.295161    1.831748    4.927948
  H     14.067724    2.532491    6.896637
  H     14.749176    0.920953    6.691443
  H     17.382344    3.619764    6.195849
  H     15.618110    6.036727    6.812670
  H     15.497630    4.491746    7.650647
  H     16.966627    5.450370    7.789817

 Total Charge           Charge          ....    0
 Multiplicity           Mult            ....    1
 Number of Electrons    NEL             ....  402
 Basis Dimension        Dim             .... 2162

ORBITAL ENERGIES
----------------

  NO   OCC          E(Eh)            E(eV)
   0   2.0000     -10.167774      -276.6792
   1   2.0000     -10.166541      -276.6456
   2   2.0000     -10.165874      -276.6275
   3   2.0000     -10.165872      -276.6274
   4   2.0000     -10.165696      -276.6226
   5   2.0000     -10.165578      -276.6195
   6   2.0000     -10.165576      -276.6194
   7   2.0000     -10.165517      -276.6178
   8   2.0000     -10.165471      -276.6165
   9   2.0000     -10.165439      -276.6156
  10   2.0000     -10.165365      -276.6137
  11   2.0000     -10.165293      -276.6117
  12   2.0000     -10.165269      -276.6110
  13   2.0000     -10.165225      -276.6098
  14   2.0000     -10.164932      -276.6019
  15   2.0000     -10.164633      -276.5937
  16   2.0000     -10.158213      -276.4190
  17   2.0000     -10.154337      -276.3136
  18   2.0000     -10.154271      -276.3118
  19   2.0000     -10.154268      -276.3117
  20   2.0000     -10.154257      -276.3114
  21   2.0000     -10.154211      -276.3101
  22   2.0000     -10.154195      -276.3097
  23   2.0000     -10.154167      -276.3089
  24   2.0000     -10.154158      -276.3087
  25   2.0000     -10.154148      -276.3084
  26   2.0000     -10.154123      -276.3077
  27   2.0000     -10.154086      -276.3067
  28   2.0000     -10.154037      -276.3054
  29   2.0000     -10.154010      -276.3047
  30   2.0000     -10.153830      -276.2998
  31   2.0000     -10.153820      -276.2995
  32   2.0000     -10.152358      -276.2597
  33   2.0000     -10.151983      -276.2495
  34   2.0000     -10.151676      -276.2411
  35   2.0000     -10.151656      -276.2406
  36   2.0000     -10.150744      -276.2158
  37   2.0000     -10.150617      -276.2123
  38   2.0000     -10.150455      -276.2079
  39   2.0000     -10.150410      -276.2067
  40   2.0000     -10.150394      -276.2063
  41   2.0000     -10.150368      -276.2055
  42   2.0000     -10.150273      -276.2030
  43   2.0000     -10.150269      -276.2029
  44   2.0000     -10.150198      -276.2009
  45   2.0000     -10.150189      -276.2007
  46   2.0000     -10.150118      -276.1988
  47   2.0000     -10.150024      -276.1962
  48   2.0000     -10.149608      -276.1849
  49   2.0000     -10.148807      -276.1631
  50   2.0000      -0.832703       -22.6590
  51   2.0000      -0.830826       -22.6079
  52   2.0000      -0.828404       -22.5420
  53   2.0000      -0.824870       -22.4459
  54   2.0000      -0.820708       -22.3326
  55   2.0000      -0.815226       -22.1834
  56   2.0000      -0.808959       -22.0129
  57   2.0000      -0.801692       -21.8151
  58   2.0000      -0.793954       -21.6046
  59   2.0000      -0.785489       -21.3743
  60   2.0000      -0.776611       -21.1327
  61   2.0000      -0.767314       -20.8797
  62   2.0000      -0.757955       -20.6250
  63   2.0000      -0.749155       -20.3856
  64   2.0000      -0.741434       -20.1754
  65   2.0000      -0.736370       -20.0376
  66   2.0000      -0.719642       -19.5825
  67   2.0000      -0.688218       -18.7274
  68   2.0000      -0.687129       -18.6977
  69   2.0000      -0.686348       -18.6765
  70   2.0000      -0.685064       -18.6415
  71   2.0000      -0.683601       -18.6017
  72   2.0000      -0.681788       -18.5524
  73   2.0000      -0.679509       -18.4904
  74   2.0000      -0.677424       -18.4336
  75   2.0000      -0.675141       -18.3715
  76   2.0000      -0.672989       -18.3130
  77   2.0000      -0.669996       -18.2315
  78   2.0000      -0.667709       -18.1693
  79   2.0000      -0.665876       -18.1194
  80   2.0000      -0.663467       -18.0539
  81   2.0000      -0.661866       -18.0103
  82   2.0000      -0.659815       -17.9545
  83   2.0000      -0.624935       -17.0053
  84   2.0000      -0.595557       -16.2059
  85   2.0000      -0.588922       -16.0254
  86   2.0000      -0.580705       -15.8018
  87   2.0000      -0.571690       -15.5565
  88   2.0000      -0.562860       -15.3162
  89   2.0000      -0.559811       -15.2332
  90   2.0000      -0.558909       -15.2087
  91   2.0000      -0.557495       -15.1702
  92   2.0000      -0.555612       -15.1190
  93   2.0000      -0.555540       -15.1170
  94   2.0000      -0.553526       -15.0622
  95   2.0000      -0.551524       -15.0077
  96   2.0000      -0.550107       -14.9692
  97   2.0000      -0.549341       -14.9483
  98   2.0000      -0.547850       -14.9078
  99   2.0000      -0.547467       -14.8973
 100   2.0000      -0.468502       -12.7486
 101   2.0000      -0.467254       -12.7146
 102   2.0000      -0.466752       -12.7010
 103   2.0000      -0.465529       -12.6677
 104   2.0000      -0.464410       -12.6372
 105   2.0000      -0.463681       -12.6174
 106   2.0000      -0.462694       -12.5905
 107   2.0000      -0.461711       -12.5638
 108   2.0000      -0.460053       -12.5187
 109   2.0000      -0.458986       -12.4896
 110   2.0000      -0.458616       -12.4796
 111   2.0000      -0.455230       -12.3874
 112   2.0000      -0.453244       -12.3334
 113   2.0000      -0.449463       -12.2305
 114   2.0000      -0.448322       -12.1995
 115   2.0000      -0.444842       -12.1048
 116   2.0000      -0.441845       -12.0232
 117   2.0000      -0.440024       -11.9737
 118   2.0000      -0.437199       -11.8968
 119   2.0000      -0.432420       -11.7668
 120   2.0000      -0.431846       -11.7511
 121   2.0000      -0.426558       -11.6072
 122   2.0000      -0.423504       -11.5241
 123   2.0000      -0.422182       -11.4882
 124   2.0000      -0.420222       -11.4348
 125   2.0000      -0.418617       -11.3911
 126   2.0000      -0.415214       -11.2985
 127   2.0000      -0.412188       -11.2162
 128   2.0000      -0.407528       -11.0894
 129   2.0000      -0.403197       -10.9715
 130   2.0000      -0.399703       -10.8765
 131   2.0000      -0.397140       -10.8067
 132   2.0000      -0.396795       -10.7974
 133   2.0000      -0.393686       -10.7127
 134   2.0000      -0.393162       -10.6985
 135   2.0000      -0.391785       -10.6610
 136   2.0000      -0.391092       -10.6422
 137   2.0000      -0.390033       -10.6133
 138   2.0000      -0.389403       -10.5962
 139   2.0000      -0.388169       -10.5626
 140   2.0000      -0.387640       -10.5482
 141   2.0000      -0.386897       -10.5280
 142   2.0000      -0.385444       -10.4885
 143   2.0000      -0.384592       -10.4653
 144   2.0000      -0.383625       -10.4390
 145   2.0000      -0.382360       -10.4046
 146   2.0000      -0.380976       -10.3669
 147   2.0000      -0.378381       -10.2963
 148   2.0000      -0.376294       -10.2395
 149   2.0000      -0.375491       -10.2176
 150   2.0000      -0.373455       -10.1622
 151   2.0000      -0.371095       -10.0980
 152   2.0000      -0.364540        -9.9196
 153   2.0000      -0.362739        -9.8706
 154   2.0000      -0.361808        -9.8453
 155   2.0000      -0.359776        -9.7900
 156   2.0000      -0.356947        -9.7130
 157   2.0000      -0.354193        -9.6381
 158   2.0000      -0.353807        -9.6276
 159   2.0000      -0.352136        -9.5821
 160   2.0000      -0.351453        -9.5635
 161   2.0000      -0.350633        -9.5412
 162   2.0000      -0.348064        -9.4713
 163   2.0000      -0.346082        -9.4174
 164   2.0000      -0.343693        -9.3524
 165   2.0000      -0.341046        -9.2803
 166   2.0000      -0.338617        -9.2142
 167   2.0000      -0.337515        -9.1842
 168   2.0000      -0.335528        -9.1302
 169   2.0000      -0.331926        -9.0322
 170   2.0000      -0.331458        -9.0194
 171   2.0000      -0.329225        -8.9587
 172   2.0000      -0.327125        -8.9015
 173   2.0000      -0.324295        -8.8245
 174   2.0000      -0.323428        -8.8009
 175   2.0000      -0.321599        -8.7512
 176   2.0000      -0.320981        -8.7343
 177   2.0000      -0.320254        -8.7146
 178   2.0000      -0.319439        -8.6924
 179   2.0000      -0.317721        -8.6456
 180   2.0000      -0.316857        -8.6221
 181   2.0000      -0.316490        -8.6121
 182   2.0000      -0.314442        -8.5564
 183   2.0000      -0.313484        -8.5303
 184   2.0000      -0.312437        -8.5018
 185   2.0000      -0.310840        -8.4584
 186   2.0000      -0.310110        -8.4385
 187   2.0000      -0.308719        -8.4007
 188   2.0000      -0.308510        -8.3950
 189   2.0000      -0.307612        -8.3705
 190   2.0000      -0.307532        -8.3684
 191   2.0000      -0.306493        -8.3401
 192   2.0000      -0.306240        -8.3332
 193   2.0000      -0.305182        -8.3044
 194   2.0000      -0.303366        -8.2550
 195   2.0000      -0.301093        -8.1932
 196   2.0000      -0.296212        -8.0603
 197   2.0000      -0.290256        -7.8983
 198   2.0000      -0.283001        -7.7008
 199   2.0000      -0.276774        -7.5314
 200   2.0000      -0.272028        -7.4023
 201   0.0000       0.029440         0.8011
 202   0.0000       0.030847         0.8394
 203   0.0000       0.032814         0.8929
 204   0.0000       0.036955         1.0056
 205   0.0000       0.039940         1.0868

MULLIKEN ATOMIC CHARGES
-----------------------
   0 C :    0.038799
   1 C :   -0.212287
   2 H :    0.109533
   3 H :    0.111371
   4 C :   -0.215590
   5 C :    0.037226
   6 H :    0.093817
   7 H :    0.088007
   8 C :   -0.212232
   9 H :    0.123270
  10 C :   -0.403964
  11 C :    0.038901
  12 H :    0.093520
  13 H :    0.088113
  14 C :   -0.217258
  15 H :    0.123431
  16 C :   -0.405517
  17 C :    0.039817
  18 H :    0.094749
  19 H :    0.088673
  20 C :   -0.186863
  21 H :    0.123440
  22 C :   -0.407047
  23 C :   -0.012713
  24 H :    0.090554
  25 H :    0.083035
  26 C :   -0.185221
  27 H :    0.122323
  28 C :   -0.405705
  29 C :    0.040441
  30 H :    0.090691
  31 H :    0.082488
  32 C :   -0.217995
  33 H :    0.120112
  34 C :   -0.408399
  35 C :    0.038307
  36 H :    0.094575
  37 H :    0.088448
  38 C :   -0.210619
  39 H :    0.112965
  40 C :   -0.406171
  41 C :    0.036905
  42 H :    0.093505
  43 H :    0.087445
  44 C :   -0.209653
  45 H :    0.112539
  46 C :   -0.404077
  47 C :    0.035581
  48 H :    0.093414
  49 H :    0.087654
  50 C :   -0.211727
  51 H :    0.112078
  52 C :   -0.404402
  53 C :    0.036091
  54 H :    0.093598
  55 H :    0.088272
  56 C :   -0.208178
  57 H :    0.112258
  58 C :   -0.404736
  59 C :    0.032593
  60 H :    0.093281
  61 H :    0.087583
  62 C :   -0.201607
  63 H :    0.112313
  64 C :   -0.404412
  65 C :    0.045752
  66 H :    0.091790
  67 H :    0.086950
  68 C :   -0.157965
  69 H :    0.113365
  70 C :   -0.389796
  71 C :   -0.348537
  72 H :    0.085601
  73 H :    0.082517
  74 H :    0.099245
  75 H :    0.123425
  76 C :   -0.403934
  77 C :    0.038216
  78 H :    0.089363
  79 H :    0.094012
  80 C :   -0.205824
  81 H :    0.113509
  82 C :   -0.405801
  83 C :    0.054057
  84 H :    0.084945
  85 H :    0.089043
  86 C :   -0.202734
  87 H :    0.112135
  88 C :   -0.391771
  89 C :    0.031806
  90 H :    0.085481
  91 H :    0.088355
  92 C :   -0.182840
  93 H :    0.114930
  94 C :   -0.405339
  95 C :    0.001118
  96 H :    0.082432
  97 H :    0.086845
  98 C :   -0.331733
  99 H :    0.096891
 100 C :   -0.362168
 101 H :    0.103692
 102 H :    0.104571
 103 H :    0.056448
 104 H :    0.100242
 105 H :    0.106586
 106 H :    0.057674
 107 H :    0.106986
 108 H :    0.122221
 109 H :    0.059022
 110 H :    0.104139
 111 H :    0.113848
 112 H :    0.057331
 113 H :    0.107366
 114 H :    0.111542
 115 H :    0.055883
 116 H :    0.105302
 117 H :    0.111995
 118 H :    0.055695
 119 H :    0.105588
 120 H :    0.111896
 121 H :    0.056135
 122 H :    0.105796
 123 H :    0.112090
 124 H :    0.056130
 125 H :    0.106519
 126 H :    0.112678
 127 H :    0.054879
 128 H :    0.105182
 129 H :    0.119946
 130 H :    0.055673
 131 H :    0.106809
 132 H :    0.122242
 133 H :    0.056079
 134 H :    0.106050
 135 H :    0.123996
 136 H :    0.056030
 137 H :    0.105352
 138 H :    0.123324
 139 H :    0.057097
 140 H :    0.105489
 141 H :    0.123394
 142 H :    0.056512
 143 H :    0.105550
 144 H :    0.123454
 145 H :    0.057115
 146 H :    0.105285
 147 H :    0.123173
 148 H :    0.051811
 149 H :    0.099757
 150 H :    0.120313
 151 H :    0.109432
Sum of atomic charges:    0.0000000

LOEWDIN ATOMIC CHARGES
----------------------
   0 C :   -0.274596
   1 C :   -0.215821
   2 H :    0.116436
   3 H :    0.115182
   4 C :   -0.215794
   5 C :   -0.274395
   6 H :    0.137654
   7 H :    0.137508
   8 C :   -0.216013
   9 H :    0.118006
  10 C :   -0.286006
  11 C :   -0.274304
  12 H :    0.137821
  13 H :    0.137593
  14 C :   -0.216264
  15 H :    0.118048
  16 C :   -0.286111
  17 C :   -0.274580
  18 H :    0.137996
  19 H :    0.137535
  20 C :   -0.211243
  21 H :    0.118025
  22 C :   -0.286782
  23 C :   -0.282040
  24 H :    0.138270
  25 H :    0.137073
  26 C :   -0.211407
  27 H :    0.117779
  28 C :   -0.282537
  29 C :   -0.274277
  30 H :    0.138451
  31 H :    0.137223
  32 C :   -0.216618
  33 H :    0.118315
  34 C :   -0.286948
  35 C :   -0.274212
  36 H :    0.138118
  37 H :    0.137666
  38 C :   -0.216192
  39 H :    0.116879
  40 C :   -0.286163
  41 C :   -0.274415
  42 H :    0.137863
  43 H :    0.137538
  44 C :   -0.215717
  45 H :    0.116875
  46 C :   -0.285875
  47 C :   -0.274589
  48 H :    0.137589
  49 H :    0.137489
  50 C :   -0.215851
  51 H :    0.116972
  52 C :   -0.286134
  53 C :   -0.274457
  54 H :    0.137643
  55 H :    0.137369
  56 C :   -0.216084
  57 H :    0.116908
  58 C :   -0.286206
  59 C :   -0.274368
  60 H :    0.137782
  61 H :    0.137453
  62 C :   -0.217098
  63 H :    0.116903
  64 C :   -0.286367
  65 C :   -0.277476
  66 H :    0.137622
  67 H :    0.137504
  68 C :   -0.272229
  69 H :    0.117123
  70 C :   -0.285703
  71 C :   -0.308947
  72 H :    0.132174
  73 H :    0.132871
  74 H :    0.116508
  75 H :    0.118177
  76 C :   -0.286059
  77 C :   -0.274822
  78 H :    0.137478
  79 H :    0.137601
  80 C :   -0.217637
  81 H :    0.116150
  82 C :   -0.286894
  83 C :   -0.264305
  84 H :    0.137005
  85 H :    0.134639
  86 C :   -0.216849
  87 H :    0.116642
  88 C :   -0.287523
  89 C :   -0.275055
  90 H :    0.137072
  91 H :    0.134210
  92 C :   -0.214067
  93 H :    0.117210
  94 C :   -0.286801
  95 C :   -0.309189
  96 H :    0.136680
  97 H :    0.137964
  98 C :   -0.284702
  99 H :    0.118049
 100 C :   -0.285098
 101 H :    0.117075
 102 H :    0.117040
 103 H :    0.145305
 104 H :    0.118037
 105 H :    0.118073
 106 H :    0.147866
 107 H :    0.118443
 108 H :    0.117882
 109 H :    0.149907
 110 H :    0.118245
 111 H :    0.116340
 112 H :    0.147748
 113 H :    0.118396
 114 H :    0.116452
 115 H :    0.148056
 116 H :    0.118267
 117 H :    0.116864
 118 H :    0.148022
 119 H :    0.118272
 120 H :    0.116801
 121 H :    0.148042
 122 H :    0.118256
 123 H :    0.116788
 124 H :    0.148113
 125 H :    0.118315
 126 H :    0.116769
 127 H :    0.147740
 128 H :    0.118612
 129 H :    0.118400
 130 H :    0.147952
 131 H :    0.118298
 132 H :    0.117680
 133 H :    0.148003
 134 H :    0.118319
 135 H :    0.118046
 136 H :    0.148135
 137 H :    0.118269
 138 H :    0.117894
 139 H :    0.148217
 140 H :    0.118257
 141 H :    0.117947
 142 H :    0.148141
 143 H :    0.118271
 144 H :    0.117979
 145 H :    0.148097
 146 H :    0.118152
 147 H :    0.117988
 148 H :    0.147209
 149 H :    0.118945
 150 H :    0.117932
 151 H :    0.116321

  Mayer bond orders larger than 0.100000
B(  0-C ,  1-C ) :   0.9103 B(  0-C ,  4-C ) :   0.9648 B(  0-C , 76-C ) :   0.9434
B(  0-C ,115-H ) :   0.9682 B(  1-C ,  5-C ) :   0.9678 B(  1-C ,  6-H ) :   0.9823
B(  1-C ,  7-H ) :   0.9676 B(  2-H , 71-C ) :   0.9799 B(  3-H , 71-C ) :   0.9808
B(  4-C , 77-C ) :   0.9075 B(  4-C , 78-H ) :   0.9686 B(  4-C , 79-H ) :   0.9834
B(  5-C ,  8-C ) :   0.9113 B(  5-C , 10-C ) :   0.9440 B(  5-C ,118-H ) :   0.9676
B(  8-C , 11-C ) :   0.9678 B(  8-C , 12-H ) :   0.9820 B(  8-C , 13-H ) :   0.9675
B(  9-H , 76-C ) :   0.9805 B( 10-C , 15-H ) :   0.9805 B( 10-C ,119-H ) :   0.9735
B( 10-C ,120-H ) :   0.9778 B( 11-C , 14-C ) :   0.9124 B( 11-C , 16-C ) :   0.9413
B( 11-C ,121-H ) :   0.9675 B( 14-C , 17-C ) :   0.9698 B( 14-C , 18-H ) :   0.9823
B( 14-C , 19-H ) :   0.9673 B( 16-C , 21-H ) :   0.9804 B( 16-C ,122-H ) :   0.9739
B( 16-C ,123-H ) :   0.9783 B( 17-C , 20-C ) :   0.9089 B( 17-C , 22-C ) :   0.9397
B( 17-C ,124-H ) :   0.9685 B( 20-C , 23-C ) :   0.9822 B( 20-C , 24-H ) :   0.9780
B( 20-C , 25-H ) :   0.9614 B( 22-C , 27-H ) :   0.9805 B( 22-C ,125-H ) :   0.9744
B( 22-C ,126-H ) :   0.9783 B( 23-C , 26-C ) :   0.9833 B( 23-C , 28-C ) :   0.9355
B( 23-C ,127-H ) :   0.9549 B( 26-C , 29-C ) :   0.9085 B( 26-C , 30-H ) :   0.9779
B( 26-C , 31-H ) :   0.9611 B( 28-C , 33-H ) :   0.9788 B( 28-C ,128-H ) :   0.9747
B( 28-C ,129-H ) :   0.9784 B( 29-C , 32-C ) :   0.9714 B( 29-C , 34-C ) :   0.9394
B( 29-C ,130-H ) :   0.9682 B( 32-C , 35-C ) :   0.9137 B( 32-C , 36-H ) :   0.9823
B( 32-C , 37-H ) :   0.9664 B( 34-C , 39-H ) :   0.9785 B( 34-C ,131-H ) :   0.9746
B( 34-C ,132-H ) :   0.9804 B( 35-C , 38-C ) :   0.9694 B( 35-C , 40-C ) :   0.9418
B( 35-C ,133-H ) :   0.9668 B( 38-C , 41-C ) :   0.9125 B( 38-C , 42-H ) :   0.9824
B( 38-C , 43-H ) :   0.9663 B( 40-C , 45-H ) :   0.9783 B( 40-C ,134-H ) :   0.9735
B( 40-C ,135-H ) :   0.9805 B( 41-C , 44-C ) :   0.9680 B( 41-C , 46-C ) :   0.9436
B( 41-C ,136-H ) :   0.9675 B( 44-C , 47-C ) :   0.9103 B( 44-C , 48-H ) :   0.9821
B( 44-C , 49-H ) :   0.9674 B( 46-C , 51-H ) :   0.9781 B( 46-C ,137-H ) :   0.9735
B( 46-C ,138-H ) :   0.9804 B( 47-C , 50-C ) :   0.9670 B( 47-C , 52-C ) :   0.9436
B( 47-C ,139-H ) :   0.9681 B( 50-C , 53-C ) :   0.9109 B( 50-C , 54-H ) :   0.9825
B( 50-C , 55-H ) :   0.9677 B( 52-C , 57-H ) :   0.9780 B( 52-C ,140-H ) :   0.9735
B( 52-C ,141-H ) :   0.9805 B( 53-C , 56-C ) :   0.9678 B( 53-C , 58-C ) :   0.9426
B( 53-C ,142-H ) :   0.9681 B( 56-C , 59-C ) :   0.9119 B( 56-C , 60-H ) :   0.9827
B( 56-C , 61-H ) :   0.9668 B( 58-C , 63-H ) :   0.9786 B( 58-C ,143-H ) :   0.9734
B( 58-C ,144-H ) :   0.9804 B( 59-C , 62-C ) :   0.9713 B( 59-C , 64-C ) :   0.9414
B( 59-C ,145-H ) :   0.9684 B( 62-C , 65-C ) :   0.9123 B( 62-C , 66-H ) :   0.9828
B( 62-C , 67-H ) :   0.9645 B( 64-C , 69-H ) :   0.9791 B( 64-C ,146-H ) :   0.9735
B( 64-C ,147-H ) :   0.9800 B( 65-C , 68-C ) :   0.9618 B( 65-C , 70-C ) :   0.9446
B( 65-C ,148-H ) :   0.9667 B( 68-C , 71-C ) :   0.9586 B( 68-C , 72-H ) :   0.9744
B( 68-C , 73-H ) :   0.9685 B( 70-C ,149-H ) :   0.9694 B( 70-C ,150-H ) :   0.9802
B( 70-C ,151-H ) :   0.9822 B( 71-C , 74-H ) :   0.9748 B( 75-H , 82-C ) :   0.9804
B( 76-C ,116-H ) :   0.9737 B( 76-C ,117-H ) :   0.9778 B( 77-C , 80-C ) :   0.9701
B( 77-C , 82-C ) :   0.9416 B( 77-C ,112-H ) :   0.9675 B( 80-C , 83-C ) :   0.9125
B( 80-C , 84-H ) :   0.9695 B( 80-C , 85-H ) :   0.9847 B( 81-H , 88-C ) :   0.9795
B( 82-C ,113-H ) :   0.9732 B( 82-C ,114-H ) :   0.9792 B( 83-C , 86-C ) :   0.9106
B( 83-C , 88-C ) :   0.9590 B( 83-C ,109-H ) :   0.9714 B( 86-C , 89-C ) :   0.9698
B( 86-C , 90-H ) :   0.9697 B( 86-C , 91-H ) :   0.9847 B( 87-H , 94-C ) :   0.9781
B( 88-C ,110-H ) :   0.9717 B( 88-C ,111-H ) :   0.9799 B( 89-C , 92-C ) :   0.9098
B( 89-C , 94-C ) :   0.9461 B( 89-C ,106-H ) :   0.9678 B( 92-C , 95-C ) :   0.9751
B( 92-C , 96-H ) :   0.9645 B( 92-C , 97-H ) :   0.9759 B( 93-H ,100-C ) :   0.9762
B( 94-C ,107-H ) :   0.9731 B( 94-C ,108-H ) :   0.9804 B( 95-C , 98-C ) :   0.9607
B( 95-C ,100-C ) :   0.9587 B( 95-C ,103-H ) :   0.9601 B( 98-C , 99-H ) :   0.9724
B( 98-C ,101-H ) :   0.9787 B( 98-C ,102-H ) :   0.9815 B(100-C ,104-H ) :   0.9720
B(100-C ,105-H ) :   0.9778

Dispersion correction           -0.281195962
FINAL SINGLE POINT ENERGY     -1966.336983282127

DIPOLE MOMENT
-------------

Method             : SCF
Type of density    : Electron Density
Multiplicity       :   1
Irrep              :   0
Energy             : -1966.0557873201278198 Eh
Basis              : AO
                                X                 Y                 Z
Electronic contribution:      1.184737255      -4.278795095      -8.985066381
Nuclear contribution   :     -1.184691283       4.318875275       8.872826531
                        -----------------------------------------
Total Dipole Moment    :      0.000045971       0.040080180      -0.112239850
                        -----------------------------------------
Magnitude (a.u.)       :      0.119181403
Magnitude (Debye)      :      0.302935052

Rotational constants in cm-1:             0.001194             0.000386             0.000325
Rotational constants in MHz :            35.781092            11.564673             9.754043

                             ****ORCA TERMINATED NORMALLY****
TOTAL RUN TIME: 0 days 3 hours 51 minutes 55 seconds 890 msec
